<?xml version="1.0" encoding="UTF-8"?>

<!-- generated on 2023-09-19 00:13:57 by Eclipse SUMO sumo Version 1.18.0
<configuration xmlns:xsi="http://www.w3.org/2001/XMLSchema-instance" xsi:noNamespaceSchemaLocation="http://sumo.dlr.de/xsd/sumoConfiguration.xsd">

    <input>
        <net-file value="network_v1.net.xml"/>
        <route-files value="simulation_demand_v1.rou.xml"/>
        <additional-files value="trafficlight.add.xml"/>
    </input>

    <output>
        <emission-output value="Outputs/emission_output_v1.xml"/>
        <tripinfo-output value="Outputs/tripinfo_v1.xml"/>
    </output>

</configuration>
-->

<detector xmlns:xsi="http://www.w3.org/2001/XMLSchema-instance" xsi:noNamespaceSchemaLocation="http://sumo.dlr.de/xsd/det_e2_file.xsd">
   <interval begin="0.00" end="300.00" id="TLSJ1_1_E2CollectorOn_-E2_0" sampledSeconds="655.51" nVehEntered="37" nVehLeft="34" nVehSeen="37" meanSpeed="1.36" meanTimeLoss="16.02" meanOccupancy="41.69" maxOccupancy="59.48" meanMaxJamLengthInVehicles="0.00" meanMaxJamLengthInMeters="0.00" maxJamLengthInVehicles="0" maxJamLengthInMeters="0.00" jamLengthInVehiclesSum="0" jamLengthInMetersSum="0.00" meanHaltingDuration="0.00" maxHaltingDuration="0.00" haltingDurationSum="0.00" meanIntervalHaltingDuration="0.00" maxIntervalHaltingDuration="0.00" intervalHaltingDurationSum="0.00" startedHalts="0.00" meanVehicleNumber="2.25" maxVehicleNumber="3" />
   <interval begin="0.00" end="300.00" id="TLSJ1_1_E2CollectorOn_-E1_0" sampledSeconds="1230.27" nVehEntered="67" nVehLeft="65" nVehSeen="67" meanSpeed="2.97" meanTimeLoss="14.42" meanOccupancy="32.90" maxOccupancy="66.29" meanMaxJamLengthInVehicles="0.00" meanMaxJamLengthInMeters="0.00" maxJamLengthInVehicles="0" maxJamLengthInMeters="0.00" jamLengthInVehiclesSum="0" jamLengthInMetersSum="0.00" meanHaltingDuration="0.00" maxHaltingDuration="0.00" haltingDurationSum="0.00" meanIntervalHaltingDuration="0.00" maxIntervalHaltingDuration="0.00" intervalHaltingDurationSum="0.00" startedHalts="0.00" meanVehicleNumber="4.19" maxVehicleNumber="8" />
   <interval begin="0.00" end="300.00" id="TLSJ1_1_E2CollectorOn_-E1_1" sampledSeconds="682.46" nVehEntered="7" nVehLeft="7" nVehSeen="7" meanSpeed="0.43" meanTimeLoss="94.43" meanOccupancy="18.69" maxOccupancy="58.00" meanMaxJamLengthInVehicles="0.00" meanMaxJamLengthInMeters="0.00" maxJamLengthInVehicles="0" maxJamLengthInMeters="0.00" jamLengthInVehiclesSum="0" jamLengthInMetersSum="0.00" meanHaltingDuration="0.00" maxHaltingDuration="0.00" haltingDurationSum="0.00" meanIntervalHaltingDuration="0.00" maxIntervalHaltingDuration="0.00" intervalHaltingDurationSum="0.00" startedHalts="0.00" meanVehicleNumber="2.29" maxVehicleNumber="7" />
   <interval begin="0.00" end="300.00" id="TLSJ1_1_E2CollectorOn_-E3_0" sampledSeconds="464.87" nVehEntered="36" nVehLeft="34" nVehSeen="36" meanSpeed="1.43" meanTimeLoss="11.58" meanOccupancy="38.12" maxOccupancy="52.22" meanMaxJamLengthInVehicles="0.00" meanMaxJamLengthInMeters="0.00" maxJamLengthInVehicles="0" maxJamLengthInMeters="0.00" jamLengthInVehiclesSum="0" jamLengthInMetersSum="0.00" meanHaltingDuration="0.00" maxHaltingDuration="0.00" haltingDurationSum="0.00" meanIntervalHaltingDuration="0.00" maxIntervalHaltingDuration="0.00" intervalHaltingDurationSum="0.00" startedHalts="0.00" meanVehicleNumber="1.60" maxVehicleNumber="2" />
   <interval begin="0.00" end="300.00" id="TLSJ1_1_E2CollectorOn_E0_0" sampledSeconds="1228.01" nVehEntered="71" nVehLeft="69" nVehSeen="71" meanSpeed="3.10" meanTimeLoss="13.40" meanOccupancy="33.14" maxOccupancy="66.90" meanMaxJamLengthInVehicles="0.00" meanMaxJamLengthInMeters="0.00" maxJamLengthInVehicles="0" maxJamLengthInMeters="0.00" jamLengthInVehiclesSum="0" jamLengthInMetersSum="0.00" meanHaltingDuration="0.00" maxHaltingDuration="0.00" haltingDurationSum="0.00" meanIntervalHaltingDuration="0.00" maxIntervalHaltingDuration="0.00" intervalHaltingDurationSum="0.00" startedHalts="0.00" meanVehicleNumber="4.21" maxVehicleNumber="8" />
   <interval begin="0.00" end="300.00" id="TLSJ1_1_E2CollectorOn_E0_1" sampledSeconds="675.96" nVehEntered="8" nVehLeft="8" nVehSeen="8" meanSpeed="0.53" meanTimeLoss="81.22" meanOccupancy="18.67" maxOccupancy="58.54" meanMaxJamLengthInVehicles="0.00" meanMaxJamLengthInMeters="0.00" maxJamLengthInVehicles="0" maxJamLengthInMeters="0.00" jamLengthInVehiclesSum="0" jamLengthInMetersSum="0.00" meanHaltingDuration="0.00" maxHaltingDuration="0.00" haltingDurationSum="0.00" meanIntervalHaltingDuration="0.00" maxIntervalHaltingDuration="0.00" intervalHaltingDurationSum="0.00" startedHalts="0.00" meanVehicleNumber="2.26" maxVehicleNumber="7" />
   <interval begin="300.00" end="600.00" id="TLSJ1_1_E2CollectorOn_-E2_0" sampledSeconds="636.75" nVehEntered="61" nVehLeft="63" nVehSeen="64" meanSpeed="2.45" meanTimeLoss="8.16" meanOccupancy="39.02" maxOccupancy="59.48" meanMaxJamLengthInVehicles="0.00" meanMaxJamLengthInMeters="0.00" maxJamLengthInVehicles="0" maxJamLengthInMeters="0.00" jamLengthInVehiclesSum="0" jamLengthInMetersSum="0.00" meanHaltingDuration="0.00" maxHaltingDuration="0.00" haltingDurationSum="0.00" meanIntervalHaltingDuration="0.00" maxIntervalHaltingDuration="0.00" intervalHaltingDurationSum="0.00" startedHalts="0.00" meanVehicleNumber="2.22" maxVehicleNumber="3" />
   <interval begin="300.00" end="600.00" id="TLSJ1_1_E2CollectorOn_-E1_0" sampledSeconds="1654.82" nVehEntered="58" nVehLeft="52" nVehSeen="60" meanSpeed="1.64" meanTimeLoss="24.38" meanOccupancy="44.96" maxOccupancy="66.29" meanMaxJamLengthInVehicles="0.00" meanMaxJamLengthInMeters="0.00" maxJamLengthInVehicles="0" maxJamLengthInMeters="0.00" jamLengthInVehiclesSum="0" jamLengthInMetersSum="0.00" meanHaltingDuration="0.00" maxHaltingDuration="0.00" haltingDurationSum="0.00" meanIntervalHaltingDuration="0.00" maxIntervalHaltingDuration="0.00" intervalHaltingDurationSum="0.00" startedHalts="0.00" meanVehicleNumber="5.58" maxVehicleNumber="8" />
   <interval begin="300.00" end="600.00" id="TLSJ1_1_E2CollectorOn_-E1_1" sampledSeconds="1150.45" nVehEntered="14" nVehLeft="7" nVehSeen="14" meanSpeed="0.35" meanTimeLoss="79.99" meanOccupancy="31.60" maxOccupancy="58.00" meanMaxJamLengthInVehicles="0.00" meanMaxJamLengthInMeters="0.00" maxJamLengthInVehicles="0" maxJamLengthInMeters="0.00" jamLengthInVehiclesSum="0" jamLengthInMetersSum="0.00" meanHaltingDuration="0.00" maxHaltingDuration="0.00" haltingDurationSum="0.00" meanIntervalHaltingDuration="0.00" maxIntervalHaltingDuration="0.00" intervalHaltingDurationSum="0.00" startedHalts="0.00" meanVehicleNumber="3.85" maxVehicleNumber="7" />
   <interval begin="300.00" end="600.00" id="TLSJ1_1_E2CollectorOn_-E3_0" sampledSeconds="475.17" nVehEntered="62" nVehLeft="62" nVehSeen="64" meanSpeed="2.48" meanTimeLoss="6.12" meanOccupancy="36.87" maxOccupancy="52.22" meanMaxJamLengthInVehicles="0.00" meanMaxJamLengthInMeters="0.00" maxJamLengthInVehicles="0" maxJamLengthInMeters="0.00" jamLengthInVehiclesSum="0" jamLengthInMetersSum="0.00" meanHaltingDuration="0.00" maxHaltingDuration="0.00" haltingDurationSum="0.00" meanIntervalHaltingDuration="0.00" maxIntervalHaltingDuration="0.00" intervalHaltingDurationSum="0.00" startedHalts="0.00" meanVehicleNumber="1.68" maxVehicleNumber="2" />
   <interval begin="300.00" end="600.00" id="TLSJ1_1_E2CollectorOn_E0_0" sampledSeconds="1658.89" nVehEntered="58" nVehLeft="52" nVehSeen="60" meanSpeed="1.61" meanTimeLoss="24.43" meanOccupancy="45.52" maxOccupancy="66.90" meanMaxJamLengthInVehicles="0.00" meanMaxJamLengthInMeters="0.00" maxJamLengthInVehicles="0" maxJamLengthInMeters="0.00" jamLengthInVehiclesSum="0" jamLengthInMetersSum="0.00" meanHaltingDuration="0.00" maxHaltingDuration="0.00" haltingDurationSum="0.00" meanIntervalHaltingDuration="0.00" maxIntervalHaltingDuration="0.00" intervalHaltingDurationSum="0.00" startedHalts="0.00" meanVehicleNumber="5.60" maxVehicleNumber="8" />
   <interval begin="300.00" end="600.00" id="TLSJ1_1_E2CollectorOn_E0_1" sampledSeconds="1157.88" nVehEntered="14" nVehLeft="7" nVehSeen="14" meanSpeed="0.35" meanTimeLoss="80.73" meanOccupancy="32.13" maxOccupancy="58.54" meanMaxJamLengthInVehicles="0.00" meanMaxJamLengthInMeters="0.00" maxJamLengthInVehicles="0" maxJamLengthInMeters="0.00" jamLengthInVehiclesSum="0" jamLengthInMetersSum="0.00" meanHaltingDuration="0.00" maxHaltingDuration="0.00" haltingDurationSum="0.00" meanIntervalHaltingDuration="0.00" maxIntervalHaltingDuration="0.00" intervalHaltingDurationSum="0.00" startedHalts="0.00" meanVehicleNumber="3.87" maxVehicleNumber="7" />
   <interval begin="600.00" end="755.00" id="TLSJ1_1_E2CollectorOn_-E2_0" sampledSeconds="408.70" nVehEntered="15" nVehLeft="13" nVehSeen="16" meanSpeed="0.86" meanTimeLoss="23.94" meanOccupancy="51.08" maxOccupancy="59.48" meanMaxJamLengthInVehicles="0.00" meanMaxJamLengthInMeters="0.00" maxJamLengthInVehicles="0" maxJamLengthInMeters="0.00" jamLengthInVehiclesSum="0" jamLengthInMetersSum="0.00" meanHaltingDuration="0.00" maxHaltingDuration="0.00" haltingDurationSum="0.00" meanIntervalHaltingDuration="0.00" maxIntervalHaltingDuration="0.00" intervalHaltingDurationSum="0.00" startedHalts="0.00" meanVehicleNumber="2.68" maxVehicleNumber="3" />
   <interval begin="600.00" end="755.00" id="TLSJ1_1_E2CollectorOn_-E1_0" sampledSeconds="607.70" nVehEntered="43" nVehLeft="47" nVehSeen="51" meanSpeed="3.96" meanTimeLoss="8.54" meanOccupancy="30.96" maxOccupancy="66.29" meanMaxJamLengthInVehicles="0.00" meanMaxJamLengthInMeters="0.00" maxJamLengthInVehicles="0" maxJamLengthInMeters="0.00" jamLengthInVehiclesSum="0" jamLengthInMetersSum="0.00" meanHaltingDuration="0.00" maxHaltingDuration="0.00" haltingDurationSum="0.00" meanIntervalHaltingDuration="0.00" maxIntervalHaltingDuration="0.00" intervalHaltingDurationSum="0.00" startedHalts="0.00" meanVehicleNumber="4.06" maxVehicleNumber="8" />
   <interval begin="600.00" end="755.00" id="TLSJ1_1_E2CollectorOn_-E1_1" sampledSeconds="307.81" nVehEntered="7" nVehLeft="12" nVehSeen="14" meanSpeed="1.58" meanTimeLoss="19.45" meanOccupancy="15.89" maxOccupancy="58.00" meanMaxJamLengthInVehicles="0.00" meanMaxJamLengthInMeters="0.00" maxJamLengthInVehicles="0" maxJamLengthInMeters="0.00" jamLengthInVehiclesSum="0" jamLengthInMetersSum="0.00" meanHaltingDuration="0.00" maxHaltingDuration="0.00" haltingDurationSum="0.00" meanIntervalHaltingDuration="0.00" maxIntervalHaltingDuration="0.00" intervalHaltingDurationSum="0.00" startedHalts="0.00" meanVehicleNumber="2.02" maxVehicleNumber="7" />
   <interval begin="600.00" end="755.00" id="TLSJ1_1_E2CollectorOn_-E3_0" sampledSeconds="286.04" nVehEntered="13" nVehLeft="13" nVehSeen="15" meanSpeed="0.87" meanTimeLoss="17.94" meanOccupancy="46.40" maxOccupancy="52.22" meanMaxJamLengthInVehicles="0.00" meanMaxJamLengthInMeters="0.00" maxJamLengthInVehicles="0" maxJamLengthInMeters="0.00" jamLengthInVehiclesSum="0" jamLengthInMetersSum="0.00" meanHaltingDuration="0.00" maxHaltingDuration="0.00" haltingDurationSum="0.00" meanIntervalHaltingDuration="0.00" maxIntervalHaltingDuration="0.00" intervalHaltingDurationSum="0.00" startedHalts="0.00" meanVehicleNumber="1.91" maxVehicleNumber="2" />
   <interval begin="600.00" end="755.00" id="TLSJ1_1_E2CollectorOn_E0_0" sampledSeconds="620.12" nVehEntered="44" nVehLeft="48" nVehSeen="52" meanSpeed="3.83" meanTimeLoss="8.63" meanOccupancy="31.94" maxOccupancy="66.90" meanMaxJamLengthInVehicles="0.00" meanMaxJamLengthInMeters="0.00" maxJamLengthInVehicles="0" maxJamLengthInMeters="0.00" jamLengthInVehiclesSum="0" jamLengthInMetersSum="0.00" meanHaltingDuration="0.00" maxHaltingDuration="0.00" haltingDurationSum="0.00" meanIntervalHaltingDuration="0.00" maxIntervalHaltingDuration="0.00" intervalHaltingDurationSum="0.00" startedHalts="0.00" meanVehicleNumber="4.12" maxVehicleNumber="8" />
   <interval begin="600.00" end="755.00" id="TLSJ1_1_E2CollectorOn_E0_1" sampledSeconds="314.69" nVehEntered="8" nVehLeft="13" nVehSeen="15" meanSpeed="1.65" meanTimeLoss="18.48" meanOccupancy="16.36" maxOccupancy="58.54" meanMaxJamLengthInVehicles="0.00" meanMaxJamLengthInMeters="0.00" maxJamLengthInVehicles="0" maxJamLengthInMeters="0.00" jamLengthInVehiclesSum="0" jamLengthInMetersSum="0.00" meanHaltingDuration="0.00" maxHaltingDuration="0.00" haltingDurationSum="0.00" meanIntervalHaltingDuration="0.00" maxIntervalHaltingDuration="0.00" intervalHaltingDurationSum="0.00" startedHalts="0.00" meanVehicleNumber="2.05" maxVehicleNumber="7" />
</detector>
