<?xml version="1.0" encoding="UTF-8"?>

<!-- generated on 2023-09-19 14:41:44 by Eclipse SUMO sumo Version 1.18.0
<configuration xmlns:xsi="http://www.w3.org/2001/XMLSchema-instance" xsi:noNamespaceSchemaLocation="http://sumo.dlr.de/xsd/sumoConfiguration.xsd">

    <input>
        <net-file value="network_v1.net.xml"/>
        <route-files value="simulation_demand_v1.rou.xml"/>
        <additional-files value="trafficlight.add.xml"/>
    </input>

    <output>
        <emission-output value="Outputs/emission_output_v1.xml"/>
        <tripinfo-output value="Outputs/tripinfo_v1.xml"/>
    </output>

</configuration>
-->

<tripinfos xmlns:xsi="http://www.w3.org/2001/XMLSchema-instance" xsi:noNamespaceSchemaLocation="http://sumo.dlr.de/xsd/tripinfo_file.xsd">
    <tripinfo id="car_flow.0" depart="10.00" departLane="E0_0" departPos="5.10" departSpeed="0.00" departDelay="0.00" arrival="22.00" arrivalLane="E1_0" arrivalPos="60.34" arrivalSpeed="14.41" duration="12.00" routeLength="129.48" waitingTime="0.00" waitingCount="0" stopTime="0.00" timeLoss="3.11" rerouteNo="0" devices="tripinfo_car_flow.0 emissions_car_flow.0" vType="DEFAULT_VEHTYPE" speedFactor="1.06" vaporized="">
        <emissions CO_abs="972.263379" CO2_abs="58591.761936" HC_abs="5.693204" PMx_abs="1.047638" NOx_abs="23.773748" fuel_abs="18688.104494" electricity_abs="0"/>
    </tripinfo>
    <tripinfo id="car_flow.1" depart="13.00" departLane="E0_0" departPos="5.10" departSpeed="0.00" departDelay="1.84" arrival="27.00" arrivalLane="E1_0" arrivalPos="60.34" arrivalSpeed="12.57" duration="14.00" routeLength="129.48" waitingTime="0.00" waitingCount="0" stopTime="0.00" timeLoss="3.19" rerouteNo="0" devices="tripinfo_car_flow.1 emissions_car_flow.1" vType="DEFAULT_VEHTYPE" speedFactor="0.94" vaporized="">
        <emissions CO_abs="944.789890" CO2_abs="52623.038604" HC_abs="5.507959" PMx_abs="0.951849" NOx_abs="21.664353" fuel_abs="16784.389780" electricity_abs="0"/>
    </tripinfo>
    <tripinfo id="car_flow.2" depart="16.00" departLane="E0_0" departPos="5.10" departSpeed="0.00" departDelay="3.68" arrival="29.00" arrivalLane="E1_0" arrivalPos="60.34" arrivalSpeed="13.50" duration="13.00" routeLength="129.48" waitingTime="0.00" waitingCount="0" stopTime="0.00" timeLoss="3.41" rerouteNo="0" devices="tripinfo_car_flow.2 emissions_car_flow.2" vType="DEFAULT_VEHTYPE" speedFactor="1.01" vaporized="">
        <emissions CO_abs="1020.152480" CO2_abs="57286.244268" HC_abs="5.911752" PMx_abs="1.058317" NOx_abs="23.759913" fuel_abs="18271.699179" electricity_abs="0"/>
    </tripinfo>
    <tripinfo id="car_flow.3" depart="19.00" departLane="E0_0" departPos="5.10" departSpeed="0.00" departDelay="5.52" arrival="32.00" arrivalLane="E1_0" arrivalPos="60.34" arrivalSpeed="14.61" duration="13.00" routeLength="129.48" waitingTime="0.00" waitingCount="0" stopTime="0.00" timeLoss="3.80" rerouteNo="0" devices="tripinfo_car_flow.3 emissions_car_flow.3" vType="DEFAULT_VEHTYPE" speedFactor="1.08" vaporized="">
        <emissions CO_abs="998.780708" CO2_abs="60823.686970" HC_abs="5.879288" PMx_abs="1.057784" NOx_abs="24.593994" fuel_abs="19400.012201" electricity_abs="0"/>
    </tripinfo>
    <tripinfo id="car_flow1.0" depart="20.00" departLane="-E1_0" departPos="5.10" departSpeed="0.00" departDelay="0.00" arrival="34.00" arrivalLane="-E0_0" arrivalPos="59.79" arrivalSpeed="11.60" duration="14.00" routeLength="129.45" waitingTime="0.00" waitingCount="0" stopTime="0.00" timeLoss="2.58" rerouteNo="0" devices="tripinfo_car_flow1.0 emissions_car_flow1.0" vType="DEFAULT_VEHTYPE" speedFactor="0.86" vaporized="">
        <emissions CO_abs="876.509618" CO2_abs="49483.632527" HC_abs="5.134852" PMx_abs="0.863789" NOx_abs="20.246336" fuel_abs="15783.084939" electricity_abs="0"/>
    </tripinfo>
    <tripinfo id="car_flow.4" depart="22.00" departLane="E0_0" departPos="5.10" departSpeed="0.00" departDelay="7.36" arrival="35.00" arrivalLane="E1_0" arrivalPos="60.34" arrivalSpeed="13.76" duration="13.00" routeLength="129.48" waitingTime="0.00" waitingCount="0" stopTime="0.00" timeLoss="3.22" rerouteNo="0" devices="tripinfo_car_flow.4 emissions_car_flow.4" vType="DEFAULT_VEHTYPE" speedFactor="1.03" vaporized="">
        <emissions CO_abs="1039.947970" CO2_abs="59743.351986" HC_abs="6.120337" PMx_abs="1.127427" NOx_abs="24.814040" fuel_abs="19055.379445" electricity_abs="0"/>
    </tripinfo>
    <tripinfo id="car_flow1.1" depart="23.00" departLane="-E1_0" departPos="5.10" departSpeed="0.00" departDelay="1.88" arrival="36.00" arrivalLane="-E0_0" arrivalPos="59.79" arrivalSpeed="14.03" duration="13.00" routeLength="129.45" waitingTime="0.00" waitingCount="0" stopTime="0.00" timeLoss="3.82" rerouteNo="0" devices="tripinfo_car_flow1.1 emissions_car_flow1.1" vType="DEFAULT_VEHTYPE" speedFactor="1.05" vaporized="">
        <emissions CO_abs="1033.505569" CO2_abs="58215.129926" HC_abs="6.045896" PMx_abs="1.058604" NOx_abs="23.875560" fuel_abs="18568.006901" electricity_abs="0"/>
    </tripinfo>
    <tripinfo id="car_flow.5" depart="25.00" departLane="E0_0" departPos="5.10" departSpeed="0.00" departDelay="9.20" arrival="40.00" arrivalLane="E1_0" arrivalPos="60.34" arrivalSpeed="11.49" duration="15.00" routeLength="129.48" waitingTime="0.00" waitingCount="0" stopTime="0.00" timeLoss="3.23" rerouteNo="0" devices="tripinfo_car_flow.5 emissions_car_flow.5" vType="DEFAULT_VEHTYPE" speedFactor="0.83" vaporized="">
        <emissions CO_abs="997.480400" CO2_abs="52742.788520" HC_abs="5.772805" PMx_abs="0.924642" NOx_abs="21.680224" fuel_abs="16822.640495" electricity_abs="0"/>
    </tripinfo>
    <tripinfo id="car_flow1.2" depart="26.00" departLane="-E1_0" departPos="5.10" departSpeed="0.00" departDelay="3.76" arrival="40.00" arrivalLane="-E0_0" arrivalPos="59.79" arrivalSpeed="13.07" duration="14.00" routeLength="129.45" waitingTime="0.00" waitingCount="0" stopTime="0.00" timeLoss="4.16" rerouteNo="0" devices="tripinfo_car_flow1.2 emissions_car_flow1.2" vType="DEFAULT_VEHTYPE" speedFactor="0.99" vaporized="">
        <emissions CO_abs="1056.464864" CO2_abs="58325.707962" HC_abs="6.137669" PMx_abs="1.022820" NOx_abs="23.808925" fuel_abs="18603.324942" electricity_abs="0"/>
    </tripinfo>
    <tripinfo id="car_flow.6" depart="28.00" departLane="E0_0" departPos="5.10" departSpeed="0.00" departDelay="11.04" arrival="42.00" arrivalLane="E1_0" arrivalPos="60.34" arrivalSpeed="13.27" duration="14.00" routeLength="129.48" waitingTime="0.00" waitingCount="0" stopTime="0.00" timeLoss="4.29" rerouteNo="0" devices="tripinfo_car_flow.6 emissions_car_flow.6" vType="DEFAULT_VEHTYPE" speedFactor="1.05" vaporized="">
        <emissions CO_abs="1103.186159" CO2_abs="60336.033310" HC_abs="6.419244" PMx_abs="1.151869" NOx_abs="25.301915" fuel_abs="19244.429607" electricity_abs="0"/>
    </tripinfo>
    <tripinfo id="car_flow1.3" depart="29.00" departLane="-E1_0" departPos="5.10" departSpeed="0.00" departDelay="5.64" arrival="43.00" arrivalLane="-E0_0" arrivalPos="59.79" arrivalSpeed="11.12" duration="14.00" routeLength="129.45" waitingTime="0.00" waitingCount="0" stopTime="0.00" timeLoss="3.36" rerouteNo="0" devices="tripinfo_car_flow1.3 emissions_car_flow1.3" vType="DEFAULT_VEHTYPE" speedFactor="0.88" vaporized="">
        <emissions CO_abs="1017.249907" CO2_abs="51320.946852" HC_abs="5.842279" PMx_abs="0.974042" NOx_abs="21.594580" fuel_abs="16369.079176" electricity_abs="0"/>
    </tripinfo>
    <tripinfo id="car_flow.7" depart="31.00" departLane="E0_0" departPos="5.10" departSpeed="0.00" departDelay="12.88" arrival="45.00" arrivalLane="E1_0" arrivalPos="60.34" arrivalSpeed="11.99" duration="14.00" routeLength="129.48" waitingTime="0.00" waitingCount="0" stopTime="0.00" timeLoss="2.64" rerouteNo="0" devices="tripinfo_car_flow.7 emissions_car_flow.7" vType="DEFAULT_VEHTYPE" speedFactor="0.89" vaporized="">
        <emissions CO_abs="858.541761" CO2_abs="51413.367910" HC_abs="5.096126" PMx_abs="0.863936" NOx_abs="20.751153" fuel_abs="16398.595493" electricity_abs="0"/>
    </tripinfo>
    <tripinfo id="car_flow1.4" depart="32.00" departLane="-E1_0" departPos="5.10" departSpeed="0.00" departDelay="7.52" arrival="45.00" arrivalLane="-E0_0" arrivalPos="59.79" arrivalSpeed="11.95" duration="13.00" routeLength="129.45" waitingTime="0.00" waitingCount="0" stopTime="0.00" timeLoss="3.09" rerouteNo="0" devices="tripinfo_car_flow1.4 emissions_car_flow1.4" vType="DEFAULT_VEHTYPE" speedFactor="0.94" vaporized="">
        <emissions CO_abs="880.877264" CO2_abs="50477.894043" HC_abs="5.192771" PMx_abs="0.884642" NOx_abs="20.643397" fuel_abs="16100.199845" electricity_abs="0"/>
    </tripinfo>
    <tripinfo id="car_flow.8" depart="34.00" departLane="E0_0" departPos="5.10" departSpeed="0.00" departDelay="14.72" arrival="47.00" arrivalLane="E1_0" arrivalPos="60.34" arrivalSpeed="12.73" duration="13.00" routeLength="129.48" waitingTime="0.00" waitingCount="0" stopTime="0.00" timeLoss="3.03" rerouteNo="0" devices="tripinfo_car_flow.8 emissions_car_flow.8" vType="DEFAULT_VEHTYPE" speedFactor="0.94" vaporized="">
        <emissions CO_abs="939.089743" CO2_abs="52126.455879" HC_abs="5.465715" PMx_abs="0.937040" NOx_abs="21.426442" fuel_abs="16626.007802" electricity_abs="0"/>
    </tripinfo>
    <tripinfo id="car_flow1.5" depart="35.00" departLane="-E1_0" departPos="5.10" departSpeed="0.00" departDelay="9.40" arrival="48.00" arrivalLane="-E0_0" arrivalPos="59.79" arrivalSpeed="15.45" duration="13.00" routeLength="129.45" waitingTime="0.00" waitingCount="0" stopTime="0.00" timeLoss="4.20" rerouteNo="0" devices="tripinfo_car_flow1.5 emissions_car_flow1.5" vType="DEFAULT_VEHTYPE" speedFactor="1.16" vaporized="">
        <emissions CO_abs="1087.622879" CO2_abs="64863.365407" HC_abs="6.363782" PMx_abs="1.168959" NOx_abs="26.423306" fuel_abs="20688.458915" electricity_abs="0"/>
    </tripinfo>
    <tripinfo id="car_flow.9" depart="37.00" departLane="E0_0" departPos="5.10" departSpeed="0.00" departDelay="16.56" arrival="50.00" arrivalLane="E1_0" arrivalPos="60.34" arrivalSpeed="14.97" duration="13.00" routeLength="129.48" waitingTime="0.00" waitingCount="0" stopTime="0.00" timeLoss="3.78" rerouteNo="0" devices="tripinfo_car_flow.9 emissions_car_flow.9" vType="DEFAULT_VEHTYPE" speedFactor="1.09" vaporized="">
        <emissions CO_abs="1146.395723" CO2_abs="63933.723031" HC_abs="6.739699" PMx_abs="1.239018" NOx_abs="26.849318" fuel_abs="20391.899908" electricity_abs="0"/>
    </tripinfo>
    <tripinfo id="car_flow1.6" depart="38.00" departLane="-E1_0" departPos="5.10" departSpeed="0.00" departDelay="11.28" arrival="51.00" arrivalLane="-E0_0" arrivalPos="59.79" arrivalSpeed="13.80" duration="13.00" routeLength="129.45" waitingTime="0.00" waitingCount="0" stopTime="0.00" timeLoss="3.21" rerouteNo="0" devices="tripinfo_car_flow1.6 emissions_car_flow1.6" vType="DEFAULT_VEHTYPE" speedFactor="1.01" vaporized="">
        <emissions CO_abs="1001.513595" CO2_abs="58283.933319" HC_abs="5.896187" PMx_abs="1.077569" NOx_abs="24.160912" fuel_abs="18589.902369" electricity_abs="0"/>
    </tripinfo>
    <tripinfo id="car_flow.10" depart="40.00" departLane="E0_0" departPos="5.10" departSpeed="0.00" departDelay="18.40" arrival="53.00" arrivalLane="E1_0" arrivalPos="60.34" arrivalSpeed="13.92" duration="13.00" routeLength="129.48" waitingTime="0.00" waitingCount="0" stopTime="0.00" timeLoss="3.33" rerouteNo="0" devices="tripinfo_car_flow.10 emissions_car_flow.10" vType="DEFAULT_VEHTYPE" speedFactor="1.03" vaporized="">
        <emissions CO_abs="970.387961" CO2_abs="59060.174845" HC_abs="5.763078" PMx_abs="1.049502" NOx_abs="24.147042" fuel_abs="18837.511481" electricity_abs="0"/>
    </tripinfo>
    <tripinfo id="car_flow1.7" depart="41.00" departLane="-E1_0" departPos="5.10" departSpeed="0.00" departDelay="13.16" arrival="55.00" arrivalLane="-E0_0" arrivalPos="59.79" arrivalSpeed="12.22" duration="14.00" routeLength="129.45" waitingTime="0.00" waitingCount="0" stopTime="0.00" timeLoss="2.93" rerouteNo="0" devices="tripinfo_car_flow1.7 emissions_car_flow1.7" vType="DEFAULT_VEHTYPE" speedFactor="0.89" vaporized="">
        <emissions CO_abs="908.703543" CO2_abs="52356.134956" HC_abs="5.347165" PMx_abs="0.894182" NOx_abs="21.268168" fuel_abs="16699.296781" electricity_abs="0"/>
    </tripinfo>
    <tripinfo id="car_flow2.0" depart="30.00" departLane="-E2_0" departPos="5.10" departSpeed="0.00" departDelay="0.00" arrival="58.00" arrivalLane="E3_0" arrivalPos="19.15" arrivalSpeed="11.92" duration="28.00" routeLength="60.09" waitingTime="16.00" waitingCount="1" stopTime="0.00" timeLoss="23.23" rerouteNo="0" devices="tripinfo_car_flow2.0 emissions_car_flow2.0" vType="DEFAULT_VEHTYPE" speedFactor="0.95" vaporized="">
        <emissions CO_abs="4000.660377" CO2_abs="93736.693344" HC_abs="20.429625" PMx_abs="2.136115" NOx_abs="41.827200" fuel_abs="29898.748633" electricity_abs="0"/>
    </tripinfo>
    <tripinfo id="car_flow3.0" depart="30.00" departLane="-E3_0" departPos="5.10" departSpeed="0.00" departDelay="0.00" arrival="59.00" arrivalLane="E2_0" arrivalPos="25.22" arrivalSpeed="12.06" duration="29.00" routeLength="60.09" waitingTime="17.00" waitingCount="1" stopTime="0.00" timeLoss="25.15" rerouteNo="0" devices="tripinfo_car_flow3.0 emissions_car_flow3.0" vType="DEFAULT_VEHTYPE" speedFactor="1.13" vaporized="">
        <emissions CO_abs="3959.954164" CO2_abs="90585.897660" HC_abs="20.166752" PMx_abs="2.061348" NOx_abs="40.382477" fuel_abs="28893.818687" electricity_abs="0"/>
    </tripinfo>
    <tripinfo id="car_flow2.1" depart="33.00" departLane="-E2_0" departPos="5.10" departSpeed="0.00" departDelay="1.92" arrival="60.00" arrivalLane="E3_0" arrivalPos="19.15" arrivalSpeed="13.13" duration="27.00" routeLength="60.09" waitingTime="16.00" waitingCount="1" stopTime="0.00" timeLoss="22.64" rerouteNo="0" devices="tripinfo_car_flow2.1 emissions_car_flow2.1" vType="DEFAULT_VEHTYPE" speedFactor="1.01" vaporized="">
        <emissions CO_abs="3870.465039" CO2_abs="92410.045631" HC_abs="19.808200" PMx_abs="2.107380" NOx_abs="41.232035" fuel_abs="29475.546685" electricity_abs="0"/>
    </tripinfo>
    <tripinfo id="car_flow3.1" depart="33.00" departLane="-E3_0" departPos="5.10" departSpeed="0.00" departDelay="1.92" arrival="61.00" arrivalLane="E2_0" arrivalPos="25.22" arrivalSpeed="13.43" duration="28.00" routeLength="60.09" waitingTime="15.00" waitingCount="1" stopTime="0.00" timeLoss="24.21" rerouteNo="0" devices="tripinfo_car_flow3.1 emissions_car_flow3.1" vType="DEFAULT_VEHTYPE" speedFactor="1.17" vaporized="">
        <emissions CO_abs="4102.031152" CO2_abs="95476.146942" HC_abs="20.930569" PMx_abs="2.167115" NOx_abs="42.495245" fuel_abs="30453.604965" electricity_abs="0"/>
    </tripinfo>
    <tripinfo id="car_flow2.2" depart="36.00" departLane="-E2_0" departPos="5.10" departSpeed="0.00" departDelay="3.84" arrival="63.00" arrivalLane="E3_0" arrivalPos="19.15" arrivalSpeed="13.35" duration="27.00" routeLength="60.09" waitingTime="15.00" waitingCount="1" stopTime="0.00" timeLoss="21.71" rerouteNo="0" devices="tripinfo_car_flow2.2 emissions_car_flow2.2" vType="DEFAULT_VEHTYPE" speedFactor="0.97" vaporized="">
        <emissions CO_abs="3817.270849" CO2_abs="91930.876168" HC_abs="19.547866" PMx_abs="2.048962" NOx_abs="40.621333" fuel_abs="29322.748291" electricity_abs="0"/>
    </tripinfo>
    <tripinfo id="car_flow3.2" depart="55.00" departLane="-E3_0" departPos="5.10" departSpeed="0.00" departDelay="22.84" arrival="63.00" arrivalLane="E2_0" arrivalPos="25.22" arrivalSpeed="15.39" duration="8.00" routeLength="60.09" waitingTime="0.00" waitingCount="0" stopTime="0.00" timeLoss="4.00" rerouteNo="0" devices="tripinfo_car_flow3.2 emissions_car_flow3.2" vType="DEFAULT_VEHTYPE" speedFactor="1.18" vaporized="">
        <emissions CO_abs="1109.496243" CO2_abs="52930.672892" HC_abs="6.317505" PMx_abs="1.105777" NOx_abs="22.955728" fuel_abs="16882.430827" electricity_abs="0"/>
    </tripinfo>
    <tripinfo id="car_flow2.3" depart="56.00" departLane="-E2_0" departPos="5.10" departSpeed="0.00" departDelay="22.76" arrival="65.00" arrivalLane="E3_0" arrivalPos="19.15" arrivalSpeed="13.13" duration="9.00" routeLength="60.09" waitingTime="0.00" waitingCount="0" stopTime="0.00" timeLoss="4.40" rerouteNo="0" devices="tripinfo_car_flow2.3 emissions_car_flow2.3" vType="DEFAULT_VEHTYPE" speedFactor="1.03" vaporized="">
        <emissions CO_abs="1043.434705" CO2_abs="45633.181692" HC_abs="5.829768" PMx_abs="0.902658" NOx_abs="19.465486" fuel_abs="14554.981903" electricity_abs="0"/>
    </tripinfo>
    <tripinfo id="car_flow3.3" depart="58.00" departLane="-E3_0" departPos="5.10" departSpeed="0.00" departDelay="24.76" arrival="66.00" arrivalLane="E2_0" arrivalPos="25.22" arrivalSpeed="13.15" duration="8.00" routeLength="60.09" waitingTime="0.00" waitingCount="0" stopTime="0.00" timeLoss="3.25" rerouteNo="0" devices="tripinfo_car_flow3.3 emissions_car_flow3.3" vType="DEFAULT_VEHTYPE" speedFactor="0.96" vaporized="">
        <emissions CO_abs="934.852176" CO2_abs="43694.747757" HC_abs="5.292175" PMx_abs="0.867667" NOx_abs="18.657786" fuel_abs="13936.662157" electricity_abs="0"/>
    </tripinfo>
    <tripinfo id="car_flow2.4" depart="60.00" departLane="-E2_0" departPos="5.10" departSpeed="0.00" departDelay="25.68" arrival="68.00" arrivalLane="E3_0" arrivalPos="19.15" arrivalSpeed="13.31" duration="8.00" routeLength="60.09" waitingTime="0.00" waitingCount="0" stopTime="0.00" timeLoss="3.43" rerouteNo="0" devices="tripinfo_car_flow2.4 emissions_car_flow2.4" vType="DEFAULT_VEHTYPE" speedFactor="1.04" vaporized="">
        <emissions CO_abs="935.820127" CO2_abs="44388.918621" HC_abs="5.285018" PMx_abs="0.888058" NOx_abs="18.902999" fuel_abs="14158.056381" electricity_abs="0"/>
    </tripinfo>
    <tripinfo id="car_flow3.4" depart="61.00" departLane="-E3_0" departPos="5.10" departSpeed="0.00" departDelay="26.68" arrival="69.00" arrivalLane="E2_0" arrivalPos="25.22" arrivalSpeed="14.23" duration="8.00" routeLength="60.09" waitingTime="0.00" waitingCount="0" stopTime="0.00" timeLoss="3.39" rerouteNo="0" devices="tripinfo_car_flow3.4 emissions_car_flow3.4" vType="DEFAULT_VEHTYPE" speedFactor="1.09" vaporized="">
        <emissions CO_abs="950.989990" CO2_abs="47896.459443" HC_abs="5.469217" PMx_abs="0.958083" NOx_abs="20.470723" fuel_abs="15276.766772" electricity_abs="0"/>
    </tripinfo>
    <tripinfo id="car_flow2.5" depart="63.00" departLane="-E2_0" departPos="5.10" departSpeed="0.00" departDelay="27.60" arrival="71.00" arrivalLane="E3_0" arrivalPos="19.15" arrivalSpeed="11.08" duration="8.00" routeLength="60.09" waitingTime="0.00" waitingCount="0" stopTime="0.00" timeLoss="3.07" rerouteNo="0" devices="tripinfo_car_flow2.5 emissions_car_flow2.5" vType="DEFAULT_VEHTYPE" speedFactor="0.88" vaporized="">
        <emissions CO_abs="819.094754" CO2_abs="35521.416938" HC_abs="4.568284" PMx_abs="0.702808" NOx_abs="15.205845" fuel_abs="11329.772906" electricity_abs="0"/>
    </tripinfo>
    <tripinfo id="car_flow3.5" depart="64.00" departLane="-E3_0" departPos="5.10" departSpeed="0.00" departDelay="28.60" arrival="72.00" arrivalLane="E2_0" arrivalPos="25.22" arrivalSpeed="11.21" duration="8.00" routeLength="60.09" waitingTime="0.00" waitingCount="0" stopTime="0.00" timeLoss="2.66" rerouteNo="0" devices="tripinfo_car_flow3.5 emissions_car_flow3.5" vType="DEFAULT_VEHTYPE" speedFactor="0.85" vaporized="">
        <emissions CO_abs="779.829725" CO2_abs="36802.711120" HC_abs="4.408954" PMx_abs="0.684457" NOx_abs="15.404140" fuel_abs="11738.461446" electricity_abs="0"/>
    </tripinfo>
    <tripinfo id="car_flow2.6" depart="66.00" departLane="-E2_0" departPos="5.10" departSpeed="0.00" departDelay="29.52" arrival="74.00" arrivalLane="E3_0" arrivalPos="19.15" arrivalSpeed="13.99" duration="8.00" routeLength="60.09" waitingTime="0.00" waitingCount="0" stopTime="0.00" timeLoss="3.17" rerouteNo="0" devices="tripinfo_car_flow2.6 emissions_car_flow2.6" vType="DEFAULT_VEHTYPE" speedFactor="1.02" vaporized="">
        <emissions CO_abs="955.348272" CO2_abs="47045.942795" HC_abs="5.468576" PMx_abs="0.942535" NOx_abs="20.109780" fuel_abs="15005.503457" electricity_abs="0"/>
    </tripinfo>
    <tripinfo id="car_flow3.6" depart="67.00" departLane="-E3_0" departPos="5.10" departSpeed="0.00" departDelay="30.52" arrival="75.00" arrivalLane="E2_0" arrivalPos="25.22" arrivalSpeed="14.77" duration="8.00" routeLength="60.09" waitingTime="0.00" waitingCount="0" stopTime="0.00" timeLoss="3.77" rerouteNo="0" devices="tripinfo_car_flow3.6 emissions_car_flow3.6" vType="DEFAULT_VEHTYPE" speedFactor="1.10" vaporized="">
        <emissions CO_abs="1055.575507" CO2_abs="50050.199158" HC_abs="5.999945" PMx_abs="1.031177" NOx_abs="21.625710" fuel_abs="15963.712735" electricity_abs="0"/>
    </tripinfo>
    <tripinfo id="car_flow2.7" depart="69.00" departLane="-E2_0" departPos="5.10" departSpeed="0.00" departDelay="31.44" arrival="77.00" arrivalLane="E3_0" arrivalPos="19.15" arrivalSpeed="12.48" duration="8.00" routeLength="60.09" waitingTime="0.00" waitingCount="0" stopTime="0.00" timeLoss="2.73" rerouteNo="0" devices="tripinfo_car_flow2.7 emissions_car_flow2.7" vType="DEFAULT_VEHTYPE" speedFactor="0.90" vaporized="">
        <emissions CO_abs="831.244054" CO2_abs="40772.689510" HC_abs="4.746191" PMx_abs="0.777683" NOx_abs="17.207415" fuel_abs="13004.666655" electricity_abs="0"/>
    </tripinfo>
    <tripinfo id="car_flow3.7" depart="70.00" departLane="-E3_0" departPos="5.10" departSpeed="0.00" departDelay="32.44" arrival="78.00" arrivalLane="E2_0" arrivalPos="25.22" arrivalSpeed="15.23" duration="8.00" routeLength="60.09" waitingTime="0.00" waitingCount="0" stopTime="0.00" timeLoss="3.36" rerouteNo="0" devices="tripinfo_car_flow3.7 emissions_car_flow3.7" vType="DEFAULT_VEHTYPE" speedFactor="1.14" vaporized="">
        <emissions CO_abs="1010.317731" CO2_abs="52353.604437" HC_abs="5.850425" PMx_abs="1.066741" NOx_abs="22.473760" fuel_abs="16698.352476" electricity_abs="0"/>
    </tripinfo>
    <tripinfo id="car_flow2.8" depart="72.00" departLane="-E2_0" departPos="5.10" departSpeed="0.00" departDelay="33.36" arrival="80.00" arrivalLane="E3_0" arrivalPos="19.15" arrivalSpeed="13.06" duration="8.00" routeLength="60.09" waitingTime="0.00" waitingCount="0" stopTime="0.00" timeLoss="3.18" rerouteNo="0" devices="tripinfo_car_flow2.8 emissions_car_flow2.8" vType="DEFAULT_VEHTYPE" speedFactor="0.97" vaporized="">
        <emissions CO_abs="932.336976" CO2_abs="42160.090698" HC_abs="5.249143" PMx_abs="0.870559" NOx_abs="18.266112" fuel_abs="13447.153187" electricity_abs="0"/>
    </tripinfo>
    <tripinfo id="car_flow3.8" depart="73.00" departLane="-E3_0" departPos="5.10" departSpeed="0.00" departDelay="34.36" arrival="81.00" arrivalLane="E2_0" arrivalPos="25.22" arrivalSpeed="13.90" duration="8.00" routeLength="60.09" waitingTime="0.00" waitingCount="0" stopTime="0.00" timeLoss="3.52" rerouteNo="0" devices="tripinfo_car_flow3.8 emissions_car_flow3.8" vType="DEFAULT_VEHTYPE" speedFactor="1.08" vaporized="">
        <emissions CO_abs="982.292669" CO2_abs="46902.205876" HC_abs="5.557287" PMx_abs="0.950813" NOx_abs="20.063585" fuel_abs="14959.660415" electricity_abs="0"/>
    </tripinfo>
    <tripinfo id="car_flow2.9" depart="75.00" departLane="-E2_0" departPos="5.10" departSpeed="0.00" departDelay="35.28" arrival="83.00" arrivalLane="E3_0" arrivalPos="19.15" arrivalSpeed="13.11" duration="8.00" routeLength="60.09" waitingTime="0.00" waitingCount="0" stopTime="0.00" timeLoss="3.41" rerouteNo="0" devices="tripinfo_car_flow2.9 emissions_car_flow2.9" vType="DEFAULT_VEHTYPE" speedFactor="1.02" vaporized="">
        <emissions CO_abs="899.762308" CO2_abs="43338.878562" HC_abs="5.122532" PMx_abs="0.849602" NOx_abs="18.444579" fuel_abs="13823.150132" electricity_abs="0"/>
    </tripinfo>
    <tripinfo id="car_flow3.9" depart="76.00" departLane="-E3_0" departPos="5.10" departSpeed="0.00" departDelay="36.28" arrival="84.00" arrivalLane="E2_0" arrivalPos="25.22" arrivalSpeed="13.11" duration="8.00" routeLength="60.09" waitingTime="0.00" waitingCount="0" stopTime="0.00" timeLoss="3.13" rerouteNo="0" devices="tripinfo_car_flow3.9 emissions_car_flow3.9" vType="DEFAULT_VEHTYPE" speedFactor="0.99" vaporized="">
        <emissions CO_abs="928.355477" CO2_abs="43136.096955" HC_abs="5.254654" PMx_abs="0.888887" NOx_abs="18.678925" fuel_abs="13758.440536" electricity_abs="0"/>
    </tripinfo>
    <tripinfo id="car_flow2.10" depart="78.00" departLane="-E2_0" departPos="5.10" departSpeed="0.00" departDelay="37.20" arrival="86.00" arrivalLane="E3_0" arrivalPos="19.15" arrivalSpeed="11.70" duration="8.00" routeLength="60.09" waitingTime="0.00" waitingCount="0" stopTime="0.00" timeLoss="2.60" rerouteNo="0" devices="tripinfo_car_flow2.10 emissions_car_flow2.10" vType="DEFAULT_VEHTYPE" speedFactor="0.91" vaporized="">
        <emissions CO_abs="784.710907" CO2_abs="38135.100886" HC_abs="4.475019" PMx_abs="0.745904" NOx_abs="16.244554" fuel_abs="12163.374930" electricity_abs="0"/>
    </tripinfo>
    <tripinfo id="car_flow3.10" depart="79.00" departLane="-E3_0" departPos="5.10" departSpeed="0.00" departDelay="38.20" arrival="87.00" arrivalLane="E2_0" arrivalPos="25.22" arrivalSpeed="12.56" duration="8.00" routeLength="60.09" waitingTime="0.00" waitingCount="0" stopTime="0.00" timeLoss="3.12" rerouteNo="0" devices="tripinfo_car_flow3.10 emissions_car_flow3.10" vType="DEFAULT_VEHTYPE" speedFactor="0.91" vaporized="">
        <emissions CO_abs="883.179668" CO2_abs="41097.610990" HC_abs="4.991645" PMx_abs="0.799123" NOx_abs="17.459489" fuel_abs="13108.312309" electricity_abs="0"/>
    </tripinfo>
    <tripinfo id="car_flow2.11" depart="81.00" departLane="-E2_0" departPos="5.10" departSpeed="0.00" departDelay="39.12" arrival="88.00" arrivalLane="E3_0" arrivalPos="19.15" arrivalSpeed="13.86" duration="7.00" routeLength="60.09" waitingTime="0.00" waitingCount="0" stopTime="0.00" timeLoss="2.76" rerouteNo="0" devices="tripinfo_car_flow2.11 emissions_car_flow2.11" vType="DEFAULT_VEHTYPE" speedFactor="1.02" vaporized="">
        <emissions CO_abs="902.760381" CO2_abs="44790.694013" HC_abs="5.179297" PMx_abs="0.917158" NOx_abs="19.289361" fuel_abs="14286.154297" electricity_abs="0"/>
    </tripinfo>
    <tripinfo id="car_flow3.11" depart="82.00" departLane="-E3_0" departPos="5.10" departSpeed="0.00" departDelay="40.12" arrival="90.00" arrivalLane="E2_0" arrivalPos="25.22" arrivalSpeed="12.96" duration="8.00" routeLength="60.09" waitingTime="0.00" waitingCount="0" stopTime="0.00" timeLoss="3.18" rerouteNo="0" devices="tripinfo_car_flow3.11 emissions_car_flow3.11" vType="DEFAULT_VEHTYPE" speedFactor="0.97" vaporized="">
        <emissions CO_abs="925.815881" CO2_abs="42027.936648" HC_abs="5.216123" PMx_abs="0.866078" NOx_abs="18.194386" fuel_abs="13405.001995" electricity_abs="0"/>
    </tripinfo>
    <tripinfo id="car_flow2.12" depart="84.00" departLane="-E2_0" departPos="5.10" departSpeed="0.00" departDelay="41.04" arrival="92.00" arrivalLane="E3_0" arrivalPos="19.15" arrivalSpeed="12.55" duration="8.00" routeLength="60.09" waitingTime="0.00" waitingCount="0" stopTime="0.00" timeLoss="2.77" rerouteNo="0" devices="tripinfo_car_flow2.12 emissions_car_flow2.12" vType="DEFAULT_VEHTYPE" speedFactor="0.96" vaporized="">
        <emissions CO_abs="872.130973" CO2_abs="42219.788902" HC_abs="4.975601" PMx_abs="0.855098" NOx_abs="18.149522" fuel_abs="13466.176737" electricity_abs="0"/>
    </tripinfo>
    <tripinfo id="car_flow3.12" depart="85.00" departLane="-E3_0" departPos="5.10" departSpeed="0.00" departDelay="42.04" arrival="93.00" arrivalLane="E2_0" arrivalPos="25.22" arrivalSpeed="13.03" duration="8.00" routeLength="60.09" waitingTime="0.00" waitingCount="0" stopTime="0.00" timeLoss="3.25" rerouteNo="0" devices="tripinfo_car_flow3.12 emissions_car_flow3.12" vType="DEFAULT_VEHTYPE" speedFactor="0.98" vaporized="">
        <emissions CO_abs="889.797721" CO2_abs="42812.178186" HC_abs="5.064271" PMx_abs="0.836432" NOx_abs="18.191835" fuel_abs="13655.161066" electricity_abs="0"/>
    </tripinfo>
    <tripinfo id="car_flow2.13" depart="87.00" departLane="-E2_0" departPos="5.10" departSpeed="0.00" departDelay="42.96" arrival="95.00" arrivalLane="E3_0" arrivalPos="19.15" arrivalSpeed="13.84" duration="8.00" routeLength="60.09" waitingTime="0.00" waitingCount="0" stopTime="0.00" timeLoss="3.30" rerouteNo="0" devices="tripinfo_car_flow2.13 emissions_car_flow2.13" vType="DEFAULT_VEHTYPE" speedFactor="1.03" vaporized="">
        <emissions CO_abs="985.687933" CO2_abs="45453.851201" HC_abs="5.574077" PMx_abs="0.953128" NOx_abs="19.775450" fuel_abs="14497.685153" electricity_abs="0"/>
    </tripinfo>
    <tripinfo id="car_flow3.13" depart="88.00" departLane="-E3_0" departPos="5.10" departSpeed="0.00" departDelay="43.96" arrival="96.00" arrivalLane="E2_0" arrivalPos="25.22" arrivalSpeed="12.85" duration="8.00" routeLength="60.09" waitingTime="0.00" waitingCount="0" stopTime="0.00" timeLoss="3.54" rerouteNo="0" devices="tripinfo_car_flow3.13 emissions_car_flow3.13" vType="DEFAULT_VEHTYPE" speedFactor="1.00" vaporized="">
        <emissions CO_abs="907.280061" CO2_abs="42048.923731" HC_abs="5.125236" PMx_abs="0.825451" NOx_abs="17.914547" fuel_abs="13411.732235" electricity_abs="0"/>
    </tripinfo>
    <tripinfo id="car_flow2.14" depart="90.00" departLane="-E2_0" departPos="5.10" departSpeed="0.00" departDelay="44.88" arrival="98.00" arrivalLane="E3_0" arrivalPos="19.15" arrivalSpeed="15.70" duration="8.00" routeLength="60.09" waitingTime="0.00" waitingCount="0" stopTime="0.00" timeLoss="3.69" rerouteNo="0" devices="tripinfo_car_flow2.14 emissions_car_flow2.14" vType="DEFAULT_VEHTYPE" speedFactor="1.15" vaporized="">
        <emissions CO_abs="1106.510470" CO2_abs="54353.614723" HC_abs="6.339018" PMx_abs="1.134334" NOx_abs="23.544614" fuel_abs="17336.265397" electricity_abs="0"/>
    </tripinfo>